
61
(
(0.0012496 -0.127303 -0.125206)
(0.00124993 -0.115549 -0.113437)
(0.0037496 -0.127329 -0.125206)
(0.00374993 -0.115606 -0.113437)
(0.0062496 -0.127355 -0.125206)
(0.00624993 -0.115662 -0.113437)
(0.0087496 -0.127382 -0.125206)
(0.00874993 -0.115718 -0.113437)
(0.0112496 -0.127408 -0.125206)
(0.0112499 -0.115774 -0.113437)
(0.0137496 -0.127434 -0.125206)
(0.0137499 -0.115831 -0.113437)
(0.0162496 -0.12746 -0.125206)
(0.0162499 -0.115887 -0.113437)
(0.0187496 -0.127487 -0.125206)
(0.0187499 -0.115943 -0.113437)
(0.0212496 -0.127513 -0.125206)
(0.0212499 -0.115999 -0.113437)
(0.0237496 -0.127539 -0.125206)
(0.0237499 -0.116056 -0.113437)
(0.0262496 -0.127565 -0.125206)
(0.0262499 -0.116112 -0.113437)
(0.0287496 -0.127592 -0.125206)
(0.0287499 -0.116168 -0.113437)
(0.0312496 -0.127618 -0.125206)
(0.0312499 -0.116224 -0.113437)
(0.0337496 -0.127644 -0.125206)
(0.0337499 -0.11628 -0.113437)
(0.0362496 -0.12767 -0.125206)
(0.0362499 -0.116337 -0.113437)
(0.0387496 -0.127697 -0.125206)
(0.0387499 -0.116393 -0.113437)
(0.0412496 -0.127723 -0.125206)
(0.0412499 -0.116449 -0.113437)
(0.0437496 -0.127749 -0.125206)
(0.0437499 -0.116505 -0.113437)
(0.0462496 -0.127775 -0.125206)
(0.0462499 -0.116562 -0.113437)
(0.0487496 -0.127802 -0.125206)
(0.0487499 -0.116618 -0.113437)
(0.0512496 -0.127828 -0.125206)
(0.0512499 -0.116674 -0.113437)
(0.0537496 -0.127854 -0.125206)
(0.0537499 -0.11673 -0.113437)
(0.0562496 -0.12788 -0.125206)
(0.0562499 -0.116787 -0.113437)
(0.0587496 -0.127907 -0.125206)
(0.0587499 -0.116843 -0.113437)
(0.0612499 -0.116899 -0.113437)
(0.0637499 -0.116955 -0.113437)
(0.0662499 -0.117012 -0.113437)
(0.0687499 -0.117068 -0.113437)
(0.0712499 -0.117124 -0.113437)
(0.0737499 -0.11718 -0.113437)
(0.0762499 -0.117237 -0.113437)
(0.0787499 -0.117293 -0.113437)
(0.0812499 -0.117349 -0.113437)
(0.0837499 -0.117405 -0.113437)
(0.0862499 -0.117462 -0.113437)
(0.0887499 -0.117518 -0.113437)
(0.0912499 -0.117574 -0.113437)
)
