
61
(
4(0 1 2 3)
4(1 2 4 5)
4(3 2 6 7)
4(2 6 8 4)
4(7 6 9 10)
4(6 9 11 8)
4(10 9 12 13)
4(9 12 14 11)
4(13 12 15 16)
4(12 15 17 14)
4(16 15 18 19)
4(15 18 20 17)
4(19 18 21 22)
4(18 21 23 20)
4(22 21 24 25)
4(21 24 26 23)
4(25 24 27 28)
4(24 27 29 26)
4(28 27 30 31)
4(27 30 32 29)
4(31 30 33 34)
4(30 33 35 32)
4(34 33 36 37)
4(33 36 38 35)
4(37 36 39 40)
4(36 39 41 38)
4(40 39 42 43)
4(39 42 44 41)
4(43 42 45 46)
4(42 45 47 44)
4(46 45 48 49)
4(45 48 50 47)
4(49 48 51 52)
4(48 51 53 50)
4(52 51 54 55)
4(51 54 56 53)
4(55 54 57 58)
4(54 57 59 56)
4(58 57 60 61)
4(57 60 62 59)
4(61 60 63 64)
4(60 63 65 62)
4(64 63 66 67)
4(63 66 68 65)
4(67 66 69 70)
4(66 69 71 68)
4(70 69 72 73)
4(69 72 74 71)
4(72 75 76 74)
4(75 77 78 76)
4(77 79 80 78)
4(79 81 82 80)
4(81 83 84 82)
4(83 85 86 84)
4(85 87 88 86)
4(87 89 90 88)
4(89 91 92 90)
4(91 93 94 92)
4(93 95 96 94)
4(95 97 98 96)
4(97 99 100 98)
)
