
101
(
(0 -0.131537 -0.131537)
(0 -0.123042 -0.118874)
(0.0025 -0.123095 -0.118874)
(0.0025 -0.131537 -0.131537)
(0.0025 -0.10806 -0.108)
(0 -0.108 -0.108)
(0.005 -0.123147 -0.118874)
(0.005 -0.131537 -0.131537)
(0.005 -0.10812 -0.108)
(0.0075 -0.1232 -0.118874)
(0.0075 -0.131537 -0.131537)
(0.0075 -0.10818 -0.108)
(0.01 -0.123252 -0.118874)
(0.01 -0.131537 -0.131537)
(0.01 -0.10824 -0.108)
(0.0125 -0.123305 -0.118874)
(0.0125 -0.131537 -0.131537)
(0.0125 -0.1083 -0.108)
(0.015 -0.123357 -0.118874)
(0.015 -0.131537 -0.131537)
(0.015 -0.10836 -0.108)
(0.0175 -0.12341 -0.118874)
(0.0175 -0.131537 -0.131537)
(0.0175 -0.10842 -0.108)
(0.02 -0.123462 -0.118874)
(0.02 -0.131537 -0.131537)
(0.02 -0.10848 -0.108)
(0.0225 -0.123515 -0.118874)
(0.0225 -0.131537 -0.131537)
(0.0225 -0.10854 -0.108)
(0.025 -0.123567 -0.118874)
(0.025 -0.131537 -0.131537)
(0.025 -0.1086 -0.108)
(0.0275 -0.12362 -0.118874)
(0.0275 -0.131537 -0.131537)
(0.0275 -0.10866 -0.108)
(0.03 -0.123672 -0.118874)
(0.03 -0.131537 -0.131537)
(0.03 -0.10872 -0.108)
(0.0325 -0.123725 -0.118874)
(0.0325 -0.131537 -0.131537)
(0.0325 -0.10878 -0.108)
(0.035 -0.123777 -0.118874)
(0.035 -0.131537 -0.131537)
(0.035 -0.10884 -0.108)
(0.0375 -0.12383 -0.118874)
(0.0375 -0.131537 -0.131537)
(0.0375 -0.1089 -0.108)
(0.04 -0.123882 -0.118874)
(0.04 -0.131537 -0.131537)
(0.04 -0.10896 -0.108)
(0.0425 -0.123935 -0.118874)
(0.0425 -0.131537 -0.131537)
(0.0425 -0.10902 -0.108)
(0.045 -0.123987 -0.118874)
(0.045 -0.131537 -0.131537)
(0.045 -0.10908 -0.108)
(0.0475 -0.12404 -0.118874)
(0.0475 -0.131537 -0.131537)
(0.0475 -0.10914 -0.108)
(0.05 -0.124092 -0.118874)
(0.05 -0.131537 -0.131537)
(0.05 -0.1092 -0.108)
(0.0525 -0.124145 -0.118874)
(0.0525 -0.131537 -0.131537)
(0.0525 -0.10926 -0.108)
(0.055 -0.124197 -0.118874)
(0.055 -0.131537 -0.131537)
(0.055 -0.10932 -0.108)
(0.0575 -0.12425 -0.118874)
(0.0575 -0.131537 -0.131537)
(0.0575 -0.10938 -0.108)
(0.06 -0.124302 -0.118874)
(0.06 -0.131537 -0.131537)
(0.06 -0.10944 -0.108)
(0.0625 -0.124355 -0.118874)
(0.0625 -0.1095 -0.108)
(0.065 -0.124407 -0.118874)
(0.065 -0.10956 -0.108)
(0.0675 -0.12446 -0.118874)
(0.0675 -0.10962 -0.108)
(0.07 -0.124512 -0.118874)
(0.07 -0.10968 -0.108)
(0.0725 -0.124565 -0.118874)
(0.0725 -0.10974 -0.108)
(0.075 -0.124617 -0.118874)
(0.075 -0.1098 -0.108)
(0.0775 -0.12467 -0.118874)
(0.0775 -0.10986 -0.108)
(0.08 -0.124722 -0.118874)
(0.08 -0.10992 -0.108)
(0.0825 -0.124774 -0.118874)
(0.0825 -0.10998 -0.108)
(0.085 -0.124827 -0.118874)
(0.085 -0.11004 -0.108)
(0.0875 -0.124879 -0.118874)
(0.0875 -0.1101 -0.108)
(0.09 -0.124932 -0.118874)
(0.09 -0.11016 -0.108)
(0.0925 -0.124984 -0.118874)
(0.0925 -0.11022 -0.108)
)
